     288
 i =        1, time =        0.000, E =     -1761.7892729580
  O         6.1024107984        1.8888197351       10.8882709105
  H         6.0612643772        0.9231716528       10.6940746337
  O         8.7173215090        6.4033795502        4.3722205586
  H         7.7401445879        6.4666641504        4.5309869561
  O         7.9481783799       10.3518986581       11.8017916110
  H         7.3395962927        9.7941250301       11.3704585519
  O         3.1366282159        1.4952381970        5.6267989396
  H         2.3233354463        1.3897860001        5.0788364566
  K        12.7633512903        6.1799028752        3.4744970694
  K         4.7761717644        0.7615278333       13.4587937702
  K         8.2543031413        5.2916289284        1.5914397485
  K         7.0746641642        4.0301765546        6.7848007222
  O         1.3095545953       -0.9621218350        3.2872939499
  H         0.4960425603       -0.7033363611        2.7728639686
  H         2.1378146187       -0.5292177264        2.8583433451
  O         5.9793858656       12.4948014592       -0.9349986014
  H         6.4769656847       12.3239823764       -0.0744340151
  H         6.7053495871       12.2820734651       -1.6344772999
  O         4.0848318611        4.4524059725        6.0703610260
  H         3.8058574908        4.5053762716        7.0542097464
  H         3.9267269904        3.5259871648        5.8229164716
  O        11.0387309647        4.2142263753        8.5995358238
  H        10.8250009768        3.2853525736        8.4307436667
  H        11.8011563083        4.2731216043        7.9814024366
  O         9.0253207560       10.1380273647        0.4424160962
  H         8.6334196129        9.8798765457       -0.4385954538
  H         9.1219112595        9.1806676477        0.9261655866
  O        13.4310160178        3.8878722282       10.4099212693
  H        13.8207797528        3.2390959864        9.7220868718
  H        12.4297857719        3.6408663250       10.2875848454
  O         6.1681405244        7.4940812659        6.0884356770
  H         6.5789344012        7.5875121221        6.9917797893
  H         5.1973903806        7.4055772830        6.0576580362
  O         7.0014631153        7.3265005863       10.5854328727
  H         7.8590614580        6.7834990281       10.4059136611
  H         6.3766357124        6.7190417016       10.1634511903
  O         5.6857596098       11.1075133642        8.5725320339
  H         5.7336966954       12.0598598156        8.2756917229
  H         4.8363156396       10.7647532571        8.1789924194
  O         6.9547335101        4.0241503473       12.6209070475
  H         6.6671631674        3.2373271099       12.0814485896
  H         6.8793790554        3.6825870880       13.5145727381
  O         0.1826230479        9.7818817355        5.7036719719
  H        -0.2477994091        9.5770007695        4.8742234141
  H         1.1326200364        9.5754770824        5.5681042035
  O         7.1429414890       13.3205672170       10.4110161399
  H         7.2672997979       13.5674193710        9.4473755252
  H         7.5089742682       12.4558679740       10.5137275525
  O        10.2368442949        7.2848544226        7.9617353625
  H         9.3461753957        7.6410583498        8.0537438879
  H        10.4445746843        6.4735558175        8.5551546316
  O         5.8684343771        5.0537564710        9.3955485162
  H         6.5759158041        4.7410312321        9.9653135189
  H         5.1134127557        4.5380014112        9.7874795865
  O         0.2072368478        2.8525961221        8.0367612022
  H         1.1570343672        3.1435631337        8.0710400453
  H         0.3564390617        1.8238115801        8.1098326195
  O         4.8020015515        1.5049850813        3.8671993890
  H         5.6914559139        1.0633798343        3.9978819687
  H         3.9490857674        1.3435100380        4.9071427935
  O         4.8254432135        2.2467020568        7.6606995725
  H         4.3066063955        2.5047994554        8.4997282050
  H         4.1615190851        1.9390722925        7.0408462496
  O         0.3465796100        5.9690322129        9.0602688824
  H         0.4769995144        6.7496058605        9.6301407507
  H        -0.1850301644        5.4019265355        9.6305627611
  O         3.4074070983        8.4124905380        5.6149384325
  H         3.0437121425        7.5163160664        5.3190255785
  H         3.4190886576        9.0014674861        4.8180694629
  O        -0.9089681366        8.0292114302        0.6141650714
  H        -1.2989771599        8.9476497256        0.5404341626
  H        -1.6007322389        7.3361687280        0.6149151245
  O         0.7980726976       10.1942656813       13.0432833359
  H        -0.1763144727       10.1082954220       12.8005230914
  H         1.2764081142       10.2098332698       12.1792571123
  O         0.4153924206        3.7882348270        5.0953315902
  H         0.4899433568        3.5084706965        6.0198996064
  H         1.1882561284        4.3940601391        4.9043558708
  O         9.4321386019        7.7541521857        1.3251008916
  H         9.8287241969        8.2078187763        2.1373276881
  H         9.7147226389        7.7000932346       -0.5978421555
  O         2.8360578157       10.6425913284       10.6838655305
  H         3.7177970753       10.2550738558       11.0550778077
  H         2.7145518867       10.4206860819        9.7552142731
  O        11.4606686089       10.9969562018        6.4300150403
  H        11.9002075218       10.1494485430        6.6527983384
  H        11.3450014578       11.0277273210        5.4449057814
  O         7.2137027318        8.4791201816        2.8526400881
  H         7.8799568352        8.3232171743        2.1072632822
  H         7.6573491096        8.0919316867        3.6180344255
  O         4.9317545165        8.6896634400        0.5083568036
  H         3.9790119496        8.5114524068        0.4317113135
  H         4.9090931992        8.5547898118        1.5013711745
  O         9.6179476502        4.6445603331        5.9335594369
  H        10.0429567075        4.9578994214        6.7948375440
  H         9.2128505808        5.5843271264        5.3648466712
  O        11.5157071910        5.8654087057        0.9096858857
  H        10.6624153140        6.4154527149        0.9928227036
  H        11.6629714017        5.8627138426       -0.0886483218
  O         8.0799487121        1.0626252367        4.8513230376
  H         8.1334930742        0.1851869608        5.3083083857
  H         8.9683374480        1.4930402500        5.0966497882
  O         4.3525655690        5.0576414871       12.0721161676
  H         5.3277437840        5.0168202696       12.3572050157
  H         4.0509063840        4.1351827440       12.2238834608
  O         1.0113678810        0.4643433573       11.2526208156
  H         0.6001184146       -0.3974979274       11.5285014308
  H         1.9994393534        0.3582654156       11.3927274055
  O         1.9975503052        8.8418655430        0.7135528277
  H         2.1399565023        7.8448645873        0.6261972744
  H         1.5932757323        9.1245696295       -0.1143187609
  O         3.3781135377        0.6744413710        1.9425058908
  H         4.1515217621        0.7261966826        2.6585443088
  H         2.7537806940        1.2924899355        2.2828854503
  O         2.6774074055        6.0540307361        0.8039329078
  H         1.7759233569        5.5973744864        0.9001573993
  H         3.1075603613        5.6373945782       -0.0152210734
  O         0.3757577827        4.8182004080        1.3533162978
  H         0.6225055430        3.9226270093        1.7801023476
  H        -0.0653011292        4.6414736081        0.5063900293
  O         2.1412244524        6.1339872612        4.5300407469
  H         2.2891054288        6.4761116636        3.6240047174
  H         2.8130113451        5.4797295490        4.8166138518
  O         3.7460190058        7.2435635630        9.4255836405
  H         3.1802025482        6.6185870136        8.8892153029
  H         4.5191108996        6.6726690873        9.5556402991
  O        12.3651092446        9.3208564575       11.5992468861
  H        11.7150755268        8.8445212905       12.1814454127
  H        12.6464815231        8.7788721783       10.8538404572
  O        12.4293601056        8.7299941680        7.9190298652
  H        11.6261576827        8.1888687908        7.9739235699
  H        12.8857241428        8.3375510405        7.1494685680
  O         6.7834600008       10.2731969601        4.8922973685
  H         6.3756719389        9.6582207159        5.5180060780
  H         6.6081818539        9.9130044437        3.9607417663
  O        11.6680545441        1.4270096722        9.5790504258
  H        12.4245853524        0.8825087659        9.4443052413
  H        11.3767116315        1.2691788562       10.5339342856
  O         4.9397529065        9.5206974100       11.7501708940
  H         5.1385047949        9.9431149285       12.6197419295
  H         4.5506456993        8.6321547980       12.0362190863
  O         2.4375297951        2.5858864859       12.8758416548
  H         1.6984195191        3.2735526090       12.9140940407
  H         1.8537212229        1.7543948745       12.9010786062
  O        10.7676549269        1.5746690439        6.0803946618
  H        11.2300619559        1.4537426669        6.9422060707
  H        11.1992976297        1.0042523530        5.3480721189
  O        13.5991014453        0.2751100365        1.7895466392
  H        12.7198554679        0.4439154679        2.2818603353
  H        13.3688855187       -0.2001286573        0.9461235780
  O         0.1975572301       11.9464148402       10.5689777962
  H         1.0944546429       11.6479945532       10.4081098698
  H        -0.3170674757       11.1175861202       10.2696296439
  O        10.2630588823        2.6138312877       12.0168719115
  H         9.4109800392        2.2962088499       12.4357642843
  H        10.7431045439        2.9372887603       12.8005842981
  O        10.0462010719        7.7745896453       12.6899379677
  H         9.3664764392        8.3330164020       12.2077346719
  H         8.8021309006       10.3887819429       11.2436075738
  O         7.3109393140        8.6830159335        8.3551420710
  H         7.2587958136        8.1711174863        9.2334351228
  H         6.6974824488        9.4419487084        8.4650037815
  O         3.1362700671       11.7573022729        1.0741426653
  H         2.7651423298       10.8540768330        1.0406270863
  H         2.2326739531       12.1882347221        1.1803223765
  O         3.6033854494       -1.1400734535        6.6575794090
  H         3.1908995227       -0.3229997247        6.3049661420
  H         4.2880970718       -0.8561438847        7.2977829715
  O         0.3711800180        7.0411440956       12.2618326109
  H        -0.0893131322        7.6117504769       12.9385877278
  H         1.3367287491        7.3169194057       12.2507187376
  O         9.4311034656       12.5468536421        3.6070924614
  H         8.8941614345       12.3271282380        2.8317471962
  H         8.8389113140       12.6074257269        4.4022557735
  O         0.4118501601        0.3259477495        8.6637285194
  H         0.5686767892       -0.5756450105        8.2892640087
  H         0.7404389962        0.2187948629        9.6355451666
  O         0.4528471527        9.0560113863        9.4524937225
  H        -0.2778749874        8.8763260613        8.8841326169
  H         1.2192468952        9.1760567312        8.8117590599
  O         9.2515169092       11.2581554116        7.8678472534
  H         8.6842238175       10.4333684770        8.1268830814
  H        10.0450942856       10.9302338303        7.2257612280
  O         0.9146580515        2.5543781297        2.5469048361
  H         0.6430678998        2.7777041516        3.4963062704
  H         0.3580242689        1.8043472543        2.1966238242
  O         7.4726829117       12.2597120963        1.4482315032
  H         6.6955363714       12.1247303193        2.1162312441
  H         7.8994446431       11.3520423679        1.2600264422
  O         3.4583487249       -0.7506958075       10.6369530411
  H         4.4397786219       -0.6224632414       10.6521769097
  H         3.3445150935       -1.7619256766       10.6060081113
  O         8.0977788426        0.6371001407       12.8328880630
  H         8.6433541933        0.1346170549       13.4638787473
  H         8.2968030500        0.1176772709       12.0361453903
  O        11.6790965312        5.5834216912       12.2145979770
  H        11.0532101860        4.9136763187       11.9112098117
  H        11.0889712007        6.3943020287       12.2044785200
  O         5.3231781029        5.2454633627        2.3214186433
  H         4.8338357020        5.7760753089        1.6618089474
  H         4.6074257754        4.6958381551        2.7464332663
  O        12.9874215412        5.8036630655        6.6776434737
  H        13.4224320312        5.0791046225        6.1852755824
  H        13.6103547645        5.9500736302        7.4022124047
  O         6.5831838480        6.5657191869       -0.0587338807
  H         5.9444159815        7.2985833538        0.0833461474
  H         6.4148617249        6.3533575701       -1.0066001036
  O        13.3009060709       12.6428649416       -0.4828429006
  H        14.0631529362       12.4306381638       -1.0703586224
  H        12.8304167982       11.7931795683       -0.3463673780
  O         0.1196341428        8.1025721024        2.9000656984
  H        -0.2805456741        8.0456652060        1.9990724688
  H         0.9213189874        8.5944699444        2.5743232286
  O        11.8554247711       10.4050370478        0.5768760802
  H        11.7512643311       10.4618002549        1.5343502482
  H        10.9913250914       10.2753888670        0.1525129368
  O         3.1539618732        7.6117535293       11.9808181638
  H         3.0538170621        7.6631754948       10.9729204268
  H         3.4596396511        6.6937222881       12.1444410799
  O         1.3655041433       11.6125711098        7.7154859562
  H         2.2533974501       11.9354014235        7.4369384119
  H         0.8404909387       11.4657591625        6.9072281890
  O         2.7155200952       11.2482216503        4.3736510029
  H         2.0391506152       11.9666317657        4.0262745821
  H         3.1324536828       11.7659833146        5.1586701111
  O         6.1660968381       -0.1806785973        7.7506495779
  H         5.6506469292        0.6288692347        7.7470021300
  H         6.5672169050       -0.2421840151        6.8459728243
  O        10.1257723620       10.4156072182       10.1023193474
  H        11.0471908197        9.9890756197       10.2391248547
  H        10.1028042371       11.0800697051        9.3401166877
  O         0.4312082834        4.2350682765       12.9883954374
  H         0.4780442257        5.2198282902       12.6930059250
  H         0.0032295664        3.9089955700       12.1556370695
  O         9.4724705931        3.0687779079        2.8465649112
  H         8.4800794295        3.3529260702        3.2549436945
  H        10.1320154206        3.3718983283        3.5786332528
  O         2.6219488376        4.8454024218        8.5243693151
  H         1.7026142418        5.1427107321        8.7939384943
  H         3.0657035650        4.2171145598        9.1896672740
  O        11.0705011596       10.2799020593        3.5657748560
  H        10.3500660975       10.9087104443        3.7806948328
  H        11.0159397719        9.4731200992        4.1791755182
  O         7.9409026133        2.4067104502        9.0577144946
  H         7.2919509046        2.1457544441        9.7254677548
  H         8.5648380156        1.6996971195        8.7832187192
  O         3.9715487469        2.8327839039       10.0412570732
  H         3.1940453840        2.5311742907       10.5644058993
  H         5.0614693015        2.2745948015       10.4992147622
  O         5.2440609340       11.5297648711        2.8084122122
  H         4.4981576930       11.6964865531        2.2050394598
  H         4.8111116040       11.7608033594        3.7048879903
  O         8.4394646267        4.8159394562       10.3661295385
  H         8.0876082009        4.5360309923       11.2482389937
  H         8.7430895943        3.9460895140        9.9391321594
  O         3.6297394811        9.5745203023        7.8961759465
  H         3.3378763103        9.2484280151        7.0157005528
  H         3.9783789613        8.7537201039        8.3373944449
  O        11.6646035949        3.8928506348        4.5314740996
  H        11.8642272073        3.0392354293        5.0225266681
  H        10.7936237736        4.1674147705        5.1514288039
  O         5.9803778364        2.8510482177        0.6651440013
  H         5.6399823069        3.3325306836        1.4374487215
  H         6.6017246127        2.2017831818        1.1439356210
  O         7.8425786646       12.6485770844        5.7939942446
  H         7.3788714361       11.8205223368        5.4456480058
  H         8.4103340320       12.2910504535        6.5449188499
  O         4.5250764345        8.2470486758        3.1043270223
  H         5.5397496640        8.0136637772        3.1445042129
  H         4.5411241177        9.1869403374        3.2310910154
  O        10.9646064726        3.0701697560        0.4882147356
  H        10.3506223784        3.1673321127        1.2837434726
  H        11.7364889152        3.5806776727        0.7437408158
  O         7.9132524996        0.8253290070        1.9458986565
  H         8.0916561994        0.8526515873        2.9283676771
  H         7.9157386993       -0.1223639379        1.7119921899
  O        11.0015343059        7.9696981825        4.9991719429
  H        10.8179994290        7.8639315852        5.9388515300
  H        10.0864247702        7.6754401480        4.6666095726
  O         6.8815536251        3.5470196509        3.8612917516
  H         6.3938814862        4.3394833184        3.5096833085
  H         6.3172356483        2.7543986152        3.6527003413
  O         3.4542806507        3.7054451990        3.3561725943
  H         2.7407939780        3.6027832434        2.7594573910
  H         3.9408985352        2.8467423993        3.4686892367
  O        10.9922146468        0.6833943329        3.1969963904
  H        10.2401521960        1.3498541002        3.0336698049
  H        10.5419218098       -0.1987020284        3.2179221965
     288
 i =      200, time =      100.000, E =     -1761.7883401840
  O         5.9149027850        1.7562152879       10.5814686162
  H         5.8677833040        0.8630033195       10.1628959152
  O         8.5513751543        6.4311244615        4.3347765580
  H         7.9558638471        6.7974364042        5.0764790037
  O         8.3432031957       10.3568938156       12.1160208462
  H         7.4594488915        9.9840440735       11.7047988165
  O         2.9807173199        1.1480826917        5.6192501499
  H         2.0090464377        1.0798342200        5.3935367363
  K        12.7513893251        6.3617429443        3.2743436912
  K         4.6965431706        0.9333475810       13.4149133735
  K         8.5046669785        5.3448188282        1.9708082884
  K         6.7734047179        4.1006396103        6.5919359681
  O         1.3356987761       -0.9199469677        3.6493130207
  H         0.4604235950       -0.5839704807        3.2311717918
  H         2.0720848010       -0.4911339388        3.0754952394
  O         6.2924709810       12.1096058006       -0.6194222721
  H         6.4758064108       12.0529030046        0.3752317053
  H         7.1849285267       12.4611925929       -0.9547675167
  O         3.8881948941        4.7939146984        6.1382704420
  H         3.4118057119        4.7607474752        7.0729995130
  H         3.7612094874        3.9283010739        5.7257705238
  O        11.3034119929        4.4296174099        8.5154555917
  H        11.2151562985        3.4863099294        8.3781515361
  H        11.8298130245        4.6406946218        7.6882099079
  O         9.1197427947       10.7192732406        0.4568476556
  H         8.7220525745       10.7966293862       -0.4587062598
  H         9.3817493861        9.6996529288        0.4810728539
  O        13.1645205060        3.8036213211       10.4076940773
  H        13.5420291652        3.1984563028        9.7380287086
  H        12.4398742183        4.1822059713        9.8550726246
  O         6.4441724671        7.7173155092        6.4207725110
  H         6.8371219013        8.2574969215        7.2023328809
  H         5.4552918648        7.7053337446        6.6860317481
  O         7.8914203316        7.7668049813       10.9253950606
  H         7.8489017970        6.7327754305       10.7862786803
  H         6.9403915634        7.9857072556       10.9222350345
  O         5.9240649618       11.0884126927        8.9246486911
  H         5.7258871462       11.9101967786        8.3642961054
  H         5.0903337914       10.5971757390        8.7031681879
  O         6.6001295686        3.5607258722       12.5712019699
  H         6.6354438461        2.7091841092       12.1019560250
  H         6.7342642969        3.3080469292       13.5001629331
  O         0.2083424180        9.1639806904        5.7468389658
  H         0.2922613363        8.9727757122        4.7533088329
  H         1.1540342849        9.2894387745        6.0283678478
  O         7.1270097528       13.6466782136       10.0820214589
  H         7.0627696356       13.6866625288        9.0941122242
  H         7.0801116861       12.7165951923       10.3364536463
  O        10.3850503751        7.1051321662        8.2995654863
  H         9.9054494478        7.5604679144        8.9594499415
  H        10.4404568028        6.2301525082        8.6800698803
  O         5.8123202715        5.0361573436        9.2401191346
  H         6.5406965278        5.1949129479        9.9187081300
  H         5.1944878220        4.5352562476        9.8074368667
  O         0.5892205359        2.3130530830        7.8151676082
  H         1.4606153138        2.5253123271        8.1927995251
  H         0.4998194929        1.3274997645        7.9916186548
  O         4.7386997634        1.3498684911        3.9220890710
  H         5.4137738328        0.6268961944        3.9894842907
  H         3.6934410533        1.2611643940        4.8503199384
  O         4.7242708804        2.0311748330        7.4720491306
  H         4.2467256202        2.3031320071        8.4169207870
  H         4.0121310900        1.8451831813        6.7658152285
  O         0.0392178951        6.4838601217        8.7790854645
  H         0.2452486674        7.3753048300        9.1730416567
  H        -0.5643059827        6.0367604345        9.4446720463
  O         3.4322750153        8.2238046830        6.0992826134
  H         2.9283318867        7.4176760723        5.7750093138
  H         3.6121580755        8.7748225241        5.2978243352
  O        -0.9742307935        8.2907232906        0.2169299905
  H        -1.4101827379        9.2137516033        0.3842662353
  H        -1.7628051713        7.6696017760        0.3978170711
  O         0.6400955810       10.2588229912       13.0767939970
  H        -0.1240876879        9.7667679661       12.7234960960
  H         1.3284952249       10.1337069738       12.3839290043
  O         0.1769741695        3.4796898552        5.2408547099
  H         0.6630851756        3.0409266580        5.9859489212
  H         0.7597249432        4.3197221599        5.0209600285
  O         9.6669059938        8.3274675413        1.0212447907
  H        10.3247588906        8.6598558793        1.6715883054
  H        10.0126263701        7.7985926190       -0.6060382428
  O         2.7833906145       11.0225439798       11.1311788928
  H         3.4037327204       10.6335848383       11.7591675368
  H         3.0039365437       10.5896854128       10.2149205897
  O        11.6628663872       11.6617966135        6.0733369036
  H        11.9668955480       11.0943897255        6.8092033607
  H        11.7032048402       11.0752026079        5.2654271606
  O         7.5786088610        8.5083466852        2.9483710038
  H         8.2265468423        8.7166196075        2.1782714584
  H         7.9076044900        7.7014872499        3.4273945959
  O         5.1741127247        8.5777757719        0.1397560609
  H         4.3599814975        8.9138693372        0.5775255726
  H         5.8963672514        8.8282697648        0.8009078283
  O         9.7454259698        4.5456446234        5.9826670684
  H         9.9738811500        5.3762139846        6.5115177593
  H         9.1635655162        4.9733045968        5.2322451662
  O        11.2660297902        6.0686523117        0.9461785443
  H        10.5934920102        6.8004312129        0.8745254476
  H        11.5202514846        5.8538811401       -0.0067839785
  O         7.8379552996        0.9367086583        4.9534822133
  H         7.6847505241       -0.0373980756        5.1351615641
  H         8.8171444385        1.0344244867        5.1414034509
  O         4.2223023705        4.9875440333       12.5154994317
  H         5.0143682439        4.4310066902       12.6824676953
  H         3.6318087350        4.3182150783       12.0906266452
  O         1.5429177486        0.1882083523       12.1962214838
  H         0.9373334350        0.4981669422       11.4888600186
  H         1.9252843745       -0.5945071597       11.7217567108
  O         2.2339574080        8.7580621512        0.7003488509
  H         2.5079130904        7.8115021506        0.4645433241
  H         1.7202405953        9.1761500326       -0.1049355383
  O         3.0114164143        0.6575346804        1.7795434786
  H         3.5813333850        0.8495265264        2.5150140793
  H         2.3122559657        1.2702097153        1.5775678704
  O         2.9537285683        6.0241987207        0.4759482879
  H         2.1058658107        5.5894865567        0.6852859671
  H         3.4370138482        5.4984648812       -0.1945216478
  O         0.4194504482        5.0032476771        1.1969959579
  H         0.3291760518        4.1223756547        1.7190472030
  H         0.3183602643        4.8446843202        0.2395586432
  O         1.6241717976        5.6927387383        4.7052311636
  H         1.5700549727        5.7010196417        3.7173103984
  H         2.4959755225        5.3062113598        5.0018434688
  O         3.8909075943        7.0347029554        9.0898892089
  H         3.2109838013        6.4069115435        8.7139838195
  H         4.7475071259        6.4598589596        9.0324941634
  O        12.4880313716        8.7373270027       11.4294051911
  H        11.7863979640        8.1944675199       11.8954193712
  H        13.3581344391        8.3019151237       11.4571959387
  O        12.3996671365        9.0553522143        7.3663153565
  H        12.1177635027        8.2189251445        7.7886168872
  H        13.2164348209        8.8226334407        6.8033466194
  O         6.4083893713       10.1067402785        4.9656482342
  H         6.4521735954        9.3556079687        5.6522325592
  H         6.8078974116        9.6126196273        4.2217944383
  O        11.0913624116        1.6978747010        9.3828104681
  H        11.8851606753        1.2089580018        9.3930756781
  H        11.1966186008        2.1982456837       10.2480576322
  O         5.5774594731        9.9657466210       11.8459505459
  H         5.8442218796       10.8667195492       12.1253100655
  H         5.3171886619        9.5500944025       12.7211653392
  O         2.4149912081        2.5318363413       12.9263687401
  H         1.5362788148        2.9713687340       13.1103017125
  H         2.2021724181        1.8364696096       12.2926472075
  O        10.4797249515        1.1490124225        5.5973247088
  H        10.8951623417        0.4468539124        6.1463063991
  H        10.9715134620        1.0047980717        4.7630180810
  O        13.5471934499        0.3330797057        1.7896048930
  H        12.5634707366        0.5749889290        1.8056252489
  H        13.7878731524        0.0174089442        0.8466307410
  O         0.0035587367       12.2379191595       10.5101759286
  H         0.5213375359       11.5698592027       10.0908296714
  H        -0.2262425412       11.9426114390       11.4609887071
  O        10.3206349381        2.4483141053       11.9311847560
  H         9.4809863689        1.9672823973       12.0326629280
  H        10.5462005071        2.6007977150       12.9186296235
  O         9.8130208577        7.4308421032       12.6939599830
  H         8.9259697581        7.8920951342       12.4145889321
  H         9.0675551832       10.1873204049       11.4452615825
  O         7.6786305682        9.3134140329        8.5170083106
  H         8.2263035470        9.0374618670        9.3078207166
  H         7.0779654775       10.0349390343        8.7650329272
  O         2.7383873091       11.5947934078        1.2215440616
  H         2.3353635045       10.7312944611        1.0784991619
  H         2.1115635626       12.3331009624        1.4005852173
  O         3.7396307785       -1.2953996992        6.5911173741
  H         3.3057027470       -0.3816082344        6.4101453165
  H         4.6290445152       -1.0244975753        6.8742042251
  O         0.5462007598        7.2566303859       12.2723962714
  H         0.0356738112        7.7371874353       12.9776260467
  H         1.4850547022        7.4809636297       12.2196242176